
                    DL_POLY Classic 1.9

                              Running on    1 nodes


 ************************************************************************************************************************
 ************************************************************************************************************************
 ************************************************************************************************************************
 ***************     ex7                                                                                  ***************
 ************************************************************************************************************************
 ************************************************************************************************************************
 ************************************************************************************************************************


 SIMULATION CONTROL PARAMETERS


 microcanonical ensemble

 simulation temperature           0.0000E+00

 selected number of timesteps            0

 simulation timestep              0.0000E+00


 electrostatic potential terms off

 border width of Verlet shell     1.0000E+00

 real space cut off               1.0000E+01

 real space cut off (vdw)         1.0000E+01

 data printing interval                  1

 statistics file interval                1


SYSTEM SPECIFICATION

 energy units=electron volts 


 number of molecular types               1

 molecular species type                  1


 name of species:             argon                                   

 number of molecules                   256

 number of atoms/sites                   1


 atomic characteristics:

                      site     name          mass        charge    repeat    freeze

                         1     Ar          39.95000     0.00000         1         0


 number of specified pair potentials         1


                atom 1  atom 2      key                              parameters


                Ar      Ar        nm       1.03236E-02  1.20000E+01  6.00000E+00  3.82198E+00

 configuration file name: 

          generated by gen_cubic.py                                                       


 selected image convention               1


 simulation cell vectors


                        20.993868    0.000000    0.000000
                         0.000000   20.993868    0.000000
                         0.000000    0.000000   20.993868


 system volume            9252.88973266    


 total degrees of freedom                       765.
 rotational degrees of freedom                    0.
 shell pseudo degrees of freedom                  0.


 sample of starting configuration

      i       x(i)        y(i)        z(i)       vx(i)       vy(i)       vz(i)


      1  0.0000E+00  0.0000E+00  0.0000E+00  0.0000E+00  0.0000E+00  0.0000E+00
     14  2.6242E+00  2.6242E+00 -5.2485E+00  0.0000E+00  0.0000E+00  0.0000E+00
     27  2.6242E+00  5.2485E+00 -7.8727E+00  0.0000E+00  0.0000E+00  0.0000E+00
     40  0.0000E+00 -7.8727E+00  7.8727E+00  0.0000E+00  0.0000E+00  0.0000E+00
     53  0.0000E+00 -5.2485E+00  5.2485E+00  0.0000E+00  0.0000E+00  0.0000E+00
     66  7.8727E+00  2.6242E+00  0.0000E+00  0.0000E+00  0.0000E+00  0.0000E+00
     79  7.8727E+00  0.0000E+00 -2.6242E+00  0.0000E+00  0.0000E+00  0.0000E+00
     92  5.2485E+00  7.8727E+00 -7.8727E+00  0.0000E+00  0.0000E+00  0.0000E+00
    105  5.2485E+00  1.0497E+01  1.0497E+01  0.0000E+00  0.0000E+00  0.0000E+00
    118  7.8727E+00 -2.6242E+00  5.2485E+00  0.0000E+00  0.0000E+00  0.0000E+00
    131 -7.8727E+00  0.0000E+00  2.6242E+00  0.0000E+00  0.0000E+00  0.0000E+00
    144  1.0497E+01  2.6242E+00 -2.6242E+00  0.0000E+00  0.0000E+00  0.0000E+00
    157  1.0497E+01  5.2485E+00 -5.2485E+00  0.0000E+00  0.0000E+00  0.0000E+00
    170 -7.8727E+00 -7.8727E+00  1.0497E+01  0.0000E+00  0.0000E+00  0.0000E+00
    183 -7.8727E+00 -5.2485E+00  7.8727E+00  0.0000E+00  0.0000E+00  0.0000E+00
    196 -5.2485E+00  2.6242E+00  2.6242E+00  0.0000E+00  0.0000E+00  0.0000E+00
    209 -5.2485E+00  5.2485E+00  0.0000E+00  0.0000E+00  0.0000E+00  0.0000E+00
    222 -2.6242E+00  7.8727E+00 -5.2485E+00  0.0000E+00  0.0000E+00  0.0000E+00
    235 -2.6242E+00  1.0497E+01 -7.8727E+00  0.0000E+00  0.0000E+00  0.0000E+00
    248 -5.2485E+00 -2.6242E+00  7.8727E+00  0.0000E+00  0.0000E+00  0.0000E+00


long range correction for: vdw energy    -0.954176E+00
                         : vdw pressure  -0.325949E+00

 time elapsed since job start =           0.006 seconds

 ------------------------------------------------------------------------------------------------------------------------

     step     eng_tot    temp_tot     eng_cfg     eng_vdw     eng_cou     eng_bnd     eng_ang     eng_dih     eng_tet
 time          eng_pv    temp_rot     vir_cfg     vir_vdw     vir_cou     vir_bnd     vir_ang     vir_con     vir_tet
 cpu time      volume    temp_shl     eng_shl     vir_shl       alpha        beta       gamma     vir_pmf       press

 ------------------------------------------------------------------------------------------------------------------------
        1 -2.2895E+01  0.0000E+00 -2.2895E+01 -2.2895E+01  0.0000E+00  0.0000E+00  0.0000E+00  0.0000E+00  0.0000E+00
   0.000f -2.3053E+01  0.0000E+00  4.7513E-01  4.7513E-01  0.0000E+00  0.0000E+00  0.0000E+00  0.0000E+00  0.0000E+00
   0.014s  9.2529E+03  0.0000E+00  0.0000E+00  0.0000E+00  9.0000E+01  9.0000E+01  9.0000E+01  0.0000E+00 -2.7065E-02

  rolling -2.2895E+01  0.0000E+00 -2.2895E+01 -2.2895E+01  0.0000E+00  0.0000E+00  0.0000E+00  0.0000E+00  0.0000E+00
 averages -2.3053E+01  0.0000E+00  4.7513E-01  4.7513E-01  0.0000E+00  0.0000E+00  0.0000E+00  0.0000E+00  0.0000E+00
           9.2529E+03  0.0000E+00  0.0000E+00  0.0000E+00  9.0000E+01  9.0000E+01  9.0000E+01  0.0000E+00 -2.7065E-02
 ------------------------------------------------------------------------------------------------------------------------


 run terminating. elapsed cpu time =   1.40000E-02, job time =   0.000s, close time =    0.00s



 run terminated after       1 steps. final averages calculated over       1 steps.


 ------------------------------------------------------------------------------------------------------------------------

     step     eng_tot    temp_tot     eng_cfg     eng_vdw     eng_cou     eng_bnd     eng_ang     eng_dih     eng_tet
 time          eng_pv    temp_rot     vir_cfg     vir_vdw     vir_cou     vir_bnd     vir_ang     vir_con     vir_tet
 cpu time      volume    temp_shl     eng_shl     vir_shl       alpha        beta       gamma     vir_pmf       press

 ------------------------------------------------------------------------------------------------------------------------
        1 -2.2895E+01  0.0000E+00 -2.2895E+01 -2.2895E+01  0.0000E+00  0.0000E+00  0.0000E+00  0.0000E+00  0.0000E+00
   0.000f -2.3053E+01  0.0000E+00  4.7513E-01  4.7513E-01  0.0000E+00  0.0000E+00  0.0000E+00  0.0000E+00  0.0000E+00
   0.026s  9.2529E+03  0.0000E+00  0.0000E+00  0.0000E+00  9.0000E+01  9.0000E+01  9.0000E+01  0.0000E+00 -2.7065E-02

  r.m.s.   0.0000E+00  0.0000E+00  0.0000E+00  0.0000E+00  0.0000E+00  0.0000E+00  0.0000E+00  0.0000E+00  0.0000E+00
 fluctn.   0.0000E+00  0.0000E+00  0.0000E+00  0.0000E+00  0.0000E+00  0.0000E+00  0.0000E+00  0.0000E+00  0.0000E+00
           0.0000E+00  0.0000E+00  0.0000E+00  0.0000E+00  0.0000E+00  0.0000E+00  0.0000E+00  0.0000E+00  0.0000E+00
 ------------------------------------------------------------------------------------------------------------------------


            Approximate 3D Diffusion  coefficients (10^-9 m^2 / s)

            atom        D 
            Ar                NaN


                Average pressure tensor                                       r.m.s. fluctuations 

          -2.7065E-02  3.4529E-18  1.4119E-17                          0.0000E+00  0.0000E+00  0.0000E+00
           3.4529E-18 -2.7065E-02  2.1154E-17                          0.0000E+00  0.0000E+00  0.0000E+00
           1.4119E-17  2.1154E-17 -2.7065E-02                          0.0000E+00  0.0000E+00  0.0000E+00

            trace/3.  -2.7065E-02


 sample of final configuration

      i       x(i)        y(i)        z(i)       vx(i)       vy(i)       vz(i)       fx(i)       fy(i)       fz(i)


      1  0.0000E+00  0.0000E+00  0.0000E+00  0.0000E+00  0.0000E+00  0.0000E+00 -3.8307E-12 -3.9515E-12 -3.9337E-12
     14  2.6242E+00  2.6242E+00 -5.2485E+00  0.0000E+00  0.0000E+00  0.0000E+00  8.6930E-14  1.2954E-13  3.9385E-12
     27  2.6242E+00  5.2485E+00 -7.8727E+00  0.0000E+00  0.0000E+00  0.0000E+00  1.5393E-13  4.2188E-15  1.2068E-13
     40  0.0000E+00 -7.8727E+00  7.8727E+00  0.0000E+00  0.0000E+00  0.0000E+00 -3.8019E-12  9.0539E-14 -1.1419E-13
     53  0.0000E+00 -5.2485E+00  5.2485E+00  0.0000E+00  0.0000E+00  0.0000E+00 -4.1420E-12  4.3102E-12  5.3846E-15
     66  7.8727E+00  2.6242E+00  0.0000E+00  0.0000E+00  0.0000E+00  0.0000E+00 -9.2371E-14  2.0342E-13 -3.9508E-12
     79  7.8727E+00  0.0000E+00 -2.6242E+00  0.0000E+00  0.0000E+00  0.0000E+00 -7.8382E-14 -4.3344E-12  2.2191E-12
     92  5.2485E+00  7.8727E+00 -7.8727E+00  0.0000E+00  0.0000E+00  0.0000E+00  2.0539E-14 -1.6062E-13  1.3559E-13
    105  5.2485E+00  1.0497E+01  1.0497E+01  0.0000E+00  0.0000E+00  0.0000E+00 -6.9944E-15 -2.0567E-12 -2.0402E-12
    118  7.8727E+00 -2.6242E+00  5.2485E+00  0.0000E+00  0.0000E+00  0.0000E+00 -1.1557E-13  2.5170E-12  1.0658E-14
    131 -7.8727E+00  0.0000E+00  2.6242E+00  0.0000E+00  0.0000E+00  0.0000E+00  1.4833E-13 -3.9644E-12  2.1066E-13
    144  1.0497E+01  2.6242E+00 -2.6242E+00  0.0000E+00  0.0000E+00  0.0000E+00 -2.4070E-12  1.2856E-13  2.2010E-12
    157  1.0497E+01  5.2485E+00 -5.2485E+00  0.0000E+00  0.0000E+00  0.0000E+00 -1.7024E-12  1.5862E-14  3.5593E-12
    170 -7.8727E+00 -7.8727E+00  1.0497E+01  0.0000E+00  0.0000E+00  0.0000E+00  9.7256E-14  7.7993E-14  6.4393E-15
    183 -7.8727E+00 -5.2485E+00  7.8727E+00  0.0000E+00  0.0000E+00  0.0000E+00  5.4623E-14  3.2572E-12 -1.3239E-13
    196 -5.2485E+00  2.6242E+00  2.6242E+00  0.0000E+00  0.0000E+00  0.0000E+00  3.9195E-12  2.1860E-13  2.1017E-13
    209 -5.2485E+00  5.2485E+00  0.0000E+00  0.0000E+00  0.0000E+00  0.0000E+00  4.3126E-12  4.8767E-14 -4.2952E-12
    222 -2.6242E+00  7.8727E+00 -5.2485E+00  0.0000E+00  0.0000E+00  0.0000E+00  2.9159E-12 -1.2718E-13  3.5993E-12
    235 -2.6242E+00  1.0497E+01 -7.8727E+00  0.0000E+00  0.0000E+00  0.0000E+00  1.4879E-12 -1.0435E-12  1.0414E-13
    248 -5.2485E+00 -2.6242E+00  7.8727E+00  0.0000E+00  0.0000E+00  0.0000E+00  3.5634E-12  2.9479E-12 -1.1158E-13

 time elapsed since job start =           0.027 seconds

