     360
 i =        0, time =        0.000, E =      -422.1536565482
  O         0.0363503049       -0.0070268585       -0.0642629019
  O        -0.0459635699       -0.0124300842        0.0098201682
  O         0.0150028574        0.0310124405       -0.1245175445
  O         0.0192075632       -0.0376190627        0.0057671339
  O         0.0195177632       -0.0647523279       -0.0526529349
  O        -0.0113882302       -0.0785573058        0.0092646064
  O         0.0062828837       -0.0433178875       -0.0665651168
  O         0.0262363824        0.0098030312        0.0169358234
  O        -0.0169088714        0.1098523207       -0.0391969985
  O         0.0044160455        0.0235513165        0.0084723366
  O         0.0462638707        0.0357342255       -0.0313579920
  O        -0.0117006171       -0.0008713168       -0.0146690430
  O        -0.0074309292        0.0506524130       -0.0803472924
  O         0.0034894176        0.0180676357        0.0010886163
  O         0.0714351259       -0.0561210013       -0.1722337264
  O         0.0072301524        0.0225621630        0.0191384285
  O        -0.0230597397        0.0021383324       -0.0160217262
  O         0.0142618579       -0.0100236497        0.0172122632
  O        -0.0006716429        0.0248056462       -0.0013655424
  O         0.0193587111       -0.0392395596        0.1011893424
  O        -0.0204826021       -0.0082909890       -0.0156349404
  O         0.0161834418        0.0515240220        0.0301808276
  O         0.0066709867       -0.0410441928        0.0228462528
  O         0.0118711514       -0.0025537610        0.0863719767
  O         0.0443918364        0.0224328240        0.0035665864
  O        -0.0636632519       -0.0217484420        0.1020214135
  O         0.0138582739        0.0407063872       -0.0093680095
  O         0.0131672116        0.0099297985        0.1187364678
  O        -0.0317093095        0.0071299441        0.0166685892
  O         0.0839500202        0.0203211453        0.0860816618
  O        -0.0257366294        0.0014089429        0.0107047489
  O         0.0838602586        0.0083706717        0.0308460451
  O         0.0070598524        0.0425609384        0.0391161822
  O         0.0004572000        0.0137115741        0.0003688842
  O        -0.0347122439       -0.0048201383        0.0236535739
  O        -0.0319563856       -0.0600109770        0.1969555037
  O        -0.0088416170       -0.0208007335       -0.0018875989
  O        -0.0054262000        0.0332472308        0.1277676968
  O         0.0504001573        0.0462845582        0.0148949522
  O        -0.0059505370        0.0227980286       -0.0107760223
  O        -0.0017464090       -0.0178181195       -0.0082081619
  O         0.0507815345        0.0997759964        0.0733614131
  O         0.0172791300       -0.0387772774       -0.0006513587
  O        -0.0721216513        0.0730476033        0.1511212349
  O         0.0255428685        0.0357691862       -0.0129152998
  O         0.0595829526       -0.0342989596        0.0896565682
  O        -0.0166209487       -0.0001325681       -0.0122766148
  O        -0.0267752568       -0.0287097731        0.0750005967
  O        -0.0058699446       -0.0193375482       -0.0004334566
  O         0.0087842664       -0.0831724390        0.0599691005
  O         0.0547684089        0.0494667618        0.0099041162
  O        -0.0199475500        0.0195206752        0.0456780253
  O         0.0064115127        0.0290203107        0.0342951768
  O         0.0191079958       -0.0139953435        0.2054148540
  O        -0.0238612590        0.0373925664       -0.0513908973
  O        -0.0576312236        0.0285188766       -0.0192569573
  O        -0.0012959615       -0.0484205861       -0.1714891781
  O        -0.0114577001        0.0386982655       -0.0012528285
  O        -0.0393412284        0.0171034211       -0.0540599270
  O        -0.0313610441       -0.0378451896        0.0246965610
  O         0.0412909012        0.0143591631       -0.0614199963
  O         0.0116549806        0.0225436451       -0.0165391033
  O        -0.0301388642       -0.0421741481        0.0033295190
  O         0.0070544351        0.0304674809        0.0173584319
  O        -0.1625878384        0.0640819793       -0.1033136494
  O         0.0496444565       -0.0269942740        0.0039622964
  O        -0.0443600692        0.0629285386       -0.0989025310
  O         0.0339965414        0.0164937539        0.0232949045
  O         0.0297319762       -0.0514768947       -0.0738205675
  O        -0.0091747152        0.0692933650       -0.0024084173
  O        -0.0069450610       -0.0006451541       -0.0337663270
  O        -0.0703998701        0.0155244601       -0.0005200587
  O         0.0269401165        0.0474480649        0.0798174249
  O        -0.0044560956       -0.0300383015        0.0011159826
  O        -0.0233475663        0.0046618893        0.0025457727
  O         0.0217572481       -0.0010960971       -0.0478692974
  O        -0.0267702413       -0.0390596471       -0.0126805735
  O        -0.0010007360        0.0072359509       -0.0336398215
  O        -0.0589639920       -0.0186549774        0.0022866315
  O        -0.0355201814       -0.0034049492        0.0135504065
  O         0.0031326367        0.0174425464       -0.0208289258
  O        -0.0264910882       -0.0231207820        0.0058770521
  O         0.0008649440       -0.0003244930       -0.0216275631
  O        -0.0372105599       -0.0355261509        0.0038967956
  O        -0.0341574011       -0.0077553332        0.0041728996
  O        -0.0043358578        0.0171576049        0.0175113206
  O         0.0108931093        0.0152895689       -0.0369241542
  O        -0.0538653010       -0.0224159439        0.0159694670
  O        -0.0132607447       -0.0566269571        0.0421875789
  O        -0.0782423098        0.0026396959        0.0232625940
  O        -0.0081129190       -0.0262399174        0.0192928304
  O         0.0000628992       -0.0152120797        0.0262216174
  O        -0.0054605065       -0.0267393224        0.0030212668
  O         0.0200757441       -0.0259136004       -0.0269510851
  O         0.0176315264       -0.0024211647       -0.0118282761
  O         0.0433410824       -0.0182534987        0.0255981275
  O         0.0196099458        0.0014455965       -0.0215531353
  O         0.0126661953       -0.0287477531        0.0136145651
  O        -0.0094831285       -0.0138831572        0.0161087188
  O        -0.0267250740        0.0269034427       -0.0181634282
  O         0.0114791519       -0.0270976410        0.0022677554
  O         0.0479319142       -0.0198850900       -0.0287475102
  O         0.0270590655       -0.0207631152        0.0449269512
  O        -0.0174214265       -0.0262390994        0.0388438016
  O         0.0195919320       -0.0356145022       -0.0037521378
  O         0.0165578625       -0.0213147191       -0.0227775118
  O         0.0004768016       -0.0353936854        0.0220632370
  O         0.0508186737       -0.0255509730        0.0337232393
  O         0.0086088315       -0.0324173372        0.1804840823
  O        -0.0488448657       -0.0272472078       -0.0124532911
  O         0.0448582744        0.0287698711        0.1789030893
  O        -0.0252166421       -0.0301009946        0.0519082756
  O        -0.0140999562        0.0482169197        0.1198773661
  O        -0.0174056151       -0.0296455044       -0.0277177406
  O         0.0093064438       -0.0165860885       -0.2551597766
  O        -0.0424029485       -0.0125527026        0.0435058738
  O         0.0013062255        0.0083256159       -0.0775074453
  O        -0.0345737838       -0.0652043508        0.0033287764
  O        -0.0108043816        0.0076702301        0.1712419531
  O         0.0308839324        0.0004073439       -0.0347493131
  O        -0.0166737539        0.0048729628        0.2660410751
  O         0.0336810936        0.0130214073        0.0233641458
  O        -0.0265466998       -0.0024021366       -0.1878796128
  O         0.0368064876       -0.0147504909        0.0383273733
  O         0.0167688543        0.0090709590       -0.2439921482
  O         0.0478649613        0.0059114239        0.0429475311
  O        -0.0331811588        0.0545368589       -0.0950499749
  O         0.0063794129       -0.0261941823        0.0294874429
  O        -0.0293954348       -0.0523229850       -0.0681743202
  O        -0.0049553381        0.0148116225        0.0287623867
  O         0.0104619532        0.0060791562       -0.1817865491
  O        -0.0173476077       -0.0009142586       -0.0294512360
  O        -0.0356822148        0.0049059036        0.1863866116
  O         0.0192576959       -0.0217936535       -0.0100021546
  O         0.0258658696        0.0122203429       -0.2586147122
  O        -0.0265335864        0.0175626268        0.0221196195
  O        -0.0708809192       -0.0150688748       -0.2129834919
  O        -0.0665899797        0.0496792925        0.0520313903
  O        -0.0157773132       -0.0029971941        0.1211744822
  O         0.0082356848       -0.0126583043        0.0074883459
  O        -0.0184086919        0.0677101583        0.1140471145
  O        -0.0288760497        0.0273614244        0.0096321923
  O        -0.0218459624       -0.0203462269       -0.2390681084
  O         0.0106000047        0.0007442502        0.0185047721
  O         0.0622676003        0.0701357576        0.0049891081
  O         0.0078353252       -0.0137368623        0.0255116353
  O         0.0055999715       -0.0072960291        0.0402543232
  O         0.0342862100        0.0208943467       -0.0251483529
  O        -0.0034541014       -0.0285987738        0.0460697658
  O         0.0076086657        0.0223575880       -0.0017510742
  O        -0.0102396473       -0.0187806575       -0.0007717210
  O         0.0317032530        0.0328767840       -0.0056825681
  O         0.0115991687        0.0238328235       -0.0412120524
  O         0.0079619835        0.0101071356        0.0091693342
  O        -0.0082994296       -0.0452121540        0.0175612978
  O         0.0191521280        0.0413552750       -0.0010388860
  O         0.0219447544        0.0428361864       -0.0234176822
  O         0.0041473911        0.0283369435        0.0449310745
  O         0.0245636245       -0.0100686484        0.0485792453
  O         0.0182478350        0.0476916556        0.0716303398
  O        -0.0025566484       -0.0031876695        0.0404819811
  O         0.0086251125       -0.0237285628        0.0883067168
  O        -0.0276462482        0.0287947233       -0.0182400133
  O        -0.0259056102        0.0230280237       -0.0290774471
  O        -0.0531127531        0.0498522218       -0.0528987044
  O        -0.0407094747        0.0037813258        0.0456983864
  O        -0.0196286251        0.0298065455       -0.0261458051
  O        -0.0041650252       -0.0042384386        0.0380694676
  O        -0.0195201603        0.0145139236        0.0263106033
  O         0.0156791451       -0.0245785440       -0.0018003216
  O        -0.0313154767        0.0164247543        0.0531084681
  O        -0.0029413184        0.0576499999        0.0053973575
  O        -0.0130340989        0.0153944435        0.0044754663
  O         0.0225435889        0.0053873824        0.0594560500
  O        -0.0404496443        0.0394462655        0.0072938113
  O         0.0105756240       -0.0279111927        0.0055501636
  O        -0.0036907117        0.0301529257       -0.0450683397
  O        -0.0800220607        0.0600565144        0.0254440082
  O        -0.0026194829        0.0310182776        0.0459887718
  O        -0.0251274496        0.0235287122        0.0521195616
  O         0.0090624214       -0.0012110718       -0.2365810121
  O         0.0049864207        0.0068782751        0.0200447544
  O         0.0051206315        0.0287758517        0.1661011703
  O        -0.0044829476       -0.0146064014        0.0170059527
  O         0.0094415406        0.0324407130       -0.1099011462
  O        -0.0087643207        0.0198856330       -0.0528554582
  O        -0.0189110721       -0.0320160595        0.0887208367
  O        -0.0175317819       -0.0319949851        0.0611629849
  O        -0.0062352903       -0.0346438174       -0.0714991388
  O        -0.0052349273        0.0074158767       -0.0317441524
  O        -0.0322310962       -0.0212648060       -0.2506795150
  O        -0.0075618411       -0.0101802196       -0.0177535169
  O        -0.0083535826       -0.0036857907       -0.1810546296
  O        -0.0223795433       -0.0040706429        0.0373829620
  O        -0.0570434202       -0.0256527749        0.1078088517
  O        -0.0157000315       -0.0204920901       -0.0189680197
  O        -0.0042310448       -0.0121441547       -0.2233814318
  O         0.0125155859        0.0012383591        0.0125140669
  O        -0.0128174127       -0.0025238120       -0.2545705120
  O         0.0392544681        0.0125656908        0.0402331061
  O         0.0047863617        0.0020278362        0.2520506694
  O         0.0121668209        0.0047874954        0.0008483267
  O         0.0285165509        0.0326709788       -0.2349661172
  O         0.0516631908       -0.0249905304        0.0080247788
  O         0.0034612801       -0.0059319162       -0.1868948977
  O        -0.0376233678        0.0395131045        0.0620194138
  O        -0.0440803032        0.0275080992       -0.1311018004
  O         0.0242630117       -0.0078106542       -0.0404539061
  O         0.0103313612        0.0057314671        0.1414576933
  O        -0.0004222399        0.0393202809        0.0389107550
  O         0.0471964868       -0.0712666558        0.1013856149
  O        -0.0020480692        0.0216627428       -0.0040313559
  O         0.0263514066        0.0521979497        0.2145256974
  O        -0.0105656573       -0.0467786812       -0.0433974608
  O         0.0051659952        0.0148987987       -0.2754997406
  O        -0.0127260754        0.0082465050       -0.0115941169
 Si         0.1487324934       -0.0232841542        0.0880158671
 Si         0.0271748211       -0.0290734130       -0.0089422223
 Si        -0.1247835752       -0.0112496191       -0.2329832872
 Si         0.0255369777       -0.0349019031       -0.0113132388
 Si        -0.1174894355       -0.1729366803        0.0402952040
 Si         0.0191487589        0.0485458246        0.0243874407
 Si         0.0082520411       -0.0773836922        0.0819318986
 Si        -0.0066727074        0.0013747493       -0.0107691488
 Si         0.1052131724       -0.0868063839        0.1378575838
 Si         0.0377468723       -0.0076617538       -0.0408616671
 Si        -0.1495727881       -0.1600719478        0.0732027512
 Si         0.0320241821        0.0025686533        0.0059953203
 Si        -0.0270242919        0.2748175301        0.0341361615
 Si         0.0642366354       -0.0071027093       -0.1103974027
 Si        -0.1379120645        0.1556772229       -0.1286365870
 Si         0.0209090463       -0.0324303688        0.0090978072
 Si        -0.0517120233        0.0198115043        0.2521610851
 Si         0.0239147434       -0.0662160627       -0.0499809228
 Si         0.0683709666       -0.0203872827        0.1667843511
 Si         0.0151772316       -0.0057597559       -0.0368096595
 Si         0.0948912252        0.1413275023       -0.1022359445
 Si         0.0481931159        0.0384407771       -0.0529792904
 Si         0.0752328589       -0.1504393210        0.1088923578
 Si        -0.0093937108        0.0832869755        0.0074849671
 Si         0.1530527335       -0.0226151686        0.0118268486
 Si        -0.0230790115        0.0324952147        0.0022660454
 Si        -0.0732412117       -0.0921011499        0.1829496783
 Si        -0.0321080849       -0.0060363392       -0.0195336437
 Si         0.1826410706        0.0573130329        0.1153327298
 Si        -0.0666736122       -0.0004119024       -0.0082212552
 Si        -0.0473910697        0.0338222193       -0.0877634766
 Si        -0.0298823703        0.0411067288        0.0251245180
 Si         0.2074020207       -0.0933954908       -0.1259957334
 Si        -0.0365263532       -0.0261018869       -0.0477964137
 Si         0.0046680370        0.0226202211        0.1821351473
 Si         0.0828453846        0.0267137291        0.0146278315
 Si        -0.0129865033        0.0099187044        0.0564507402
 Si         0.0319830270        0.0104526676        0.0123769256
 Si        -0.0478349918       -0.0260507939        0.1419999888
 Si        -0.0001783098        0.0167108262        0.0344052023
 Si        -0.0191531534        0.0096054133        0.0615081631
 Si        -0.0159905899       -0.0361814810       -0.0616416439
 Si         0.0383066106        0.0482198855        0.0867354903
 Si        -0.0189453484       -0.0256574893        0.0306304333
 Si        -0.0179483400       -0.0301243159        0.0010730630
 Si         0.0528027064        0.0001643601       -0.0427817177
 Si        -0.0143004998        0.0171089102       -0.0082674342
 Si         0.0410378548        0.0284175820       -0.1121023134
 Si         0.0862197460       -0.0305613006        0.1464750316
 Si        -0.0451891610        0.0393701129       -0.0139037114
 Si        -0.0038342258       -0.0147300400       -0.0077268599
 Si         0.0361744021       -0.0607803869       -0.1641334982
 Si         0.0091286220       -0.0290498280        0.1206481365
 Si        -0.0633549238       -0.0436591492       -0.0670581984
 Si        -0.0546447366       -0.0830272603       -0.1055794458
 Si        -0.0391507264        0.0029535673       -0.1127556121
 Si         0.0402930425       -0.0044520713        0.0079327208
 Si         0.0073965923       -0.0152245383       -0.0909645074
 Si         0.0002170157       -0.0187005383        0.0075504831
 Si         0.0392055363        0.0217289451       -0.1207693053
 Si        -0.0546162739       -0.0347496414        0.0942077702
 Si         0.0076009957        0.0065190573       -0.0026349507
 Si         0.0391990441        0.0055759033        0.0140445281
 Si        -0.0288704746        0.0186924222       -0.1232943033
 Si         0.0475373428       -0.0050731217        0.0023441161
 Si        -0.0990347310       -0.0477492705       -0.1279367588
 Si        -0.0114238682       -0.0505848605        0.0755898542
 Si        -0.0260282595        0.0318333995       -0.1001464399
 Si        -0.0108248709        0.0248610917        0.1398707231
 Si         0.0428971911       -0.0418013596        0.0261232503
 Si         0.0186652251        0.0769203142        0.0568597371
 Si         0.0728661796        0.0165739498       -0.0763432254
 Ca         0.0042423769        0.0205124299       -0.0733043013
 Ca         0.0209232198       -0.0085742727       -0.0109674642
 Ca        -0.0481444502        0.0052011827       -0.0591892097
 Ca        -0.0121453241       -0.0192144400        0.0205034865
 Ca        -0.0645443888        0.0118102376       -0.0117590103
 Ca        -0.0039447793       -0.0044940650        0.0149532122
 Ca         0.0036773159        0.0543091409       -0.0703519740
 Ca        -0.0109138899        0.0087560389       -0.0337921691
 Ca         0.0063987173       -0.0468789663       -0.0298567561
 Ca         0.0084855022       -0.0370832472       -0.0129208060
 Ca         0.0392570573       -0.0163671539       -0.0477585508
 Ca        -0.0109939335        0.0102408866       -0.0010305182
 Ca         0.0171955316       -0.0165495301       -0.1083187823
 Ca         0.0104761508       -0.0110064518       -0.0102518575
 Ca         0.0584555515       -0.0117908707       -0.0802631758
 Ca        -0.0157189770       -0.0005634974        0.0086055019
 Ca         0.0035674630        0.0203376594       -0.0708755193
 Ca         0.0003209489       -0.0342903919       -0.0292184684
 Ca         0.0106611504       -0.0114501189        0.0037156565
 Ca         0.0444290786        0.0152257839        0.0617298018
 Ca        -0.0071774907        0.0078456333       -0.0151269816
 Ca         0.0741567537       -0.0488014646        0.0349903708
 Ca        -0.0196925252        0.0263616024       -0.0032212136
 Ca         0.0742253837       -0.0206430633        0.0944731409
 Ca        -0.0068145146        0.0095659495       -0.0073684668
 Ca        -0.0486667723        0.0744381591        0.0907908043
 Ca         0.0010790310        0.0089986196        0.0021137071
 Ca        -0.0144632868       -0.0122529845        0.1032432761
 Ca         0.0168242693        0.0113912608        0.0109707330
 Ca        -0.0062072622       -0.0813453615        0.0656965670
 Ca        -0.0236083503        0.0190900216       -0.0028783086
 Ca        -0.0065651582        0.0595004980        0.0077803803
 Ca        -0.0035893459       -0.0204654582       -0.0354226626
 Ca        -0.0444386762       -0.0684835541        0.0946837550
 Ca         0.0062137979       -0.0171399444       -0.0460421155
 Ca        -0.0716583689        0.0382176160        0.0682925093
 Ca         0.0145942633       -0.0046486325        0.0164561125
 Ca         0.0041482549       -0.0041475308        0.0958146097
 Ca        -0.0250502346        0.0063756070        0.0088572894
 Ca         0.0333970852        0.0034850816        0.0771962892
 Ca        -0.0056683881       -0.0379611558        0.0130649019
 Ca         0.0553787783       -0.0004481924        0.0609777995
 Ca         0.0134337110       -0.0340252412       -0.0188143857
 Ca         0.0039729556       -0.0503958671        0.0349617710
 Ca        -0.0034525405       -0.0161805991        0.0031696213
 Ca        -0.0111219645        0.0481366180        0.0799557308
 Ca        -0.0075192263       -0.0014131355       -0.0305697018
 Ca        -0.0836528268        0.0089424338        0.0817740395
 Ca         0.0129577326       -0.0083125607       -0.0297589113
 Ca        -0.0274158995        0.0364400488        0.0541582164
 Ca        -0.0199739205       -0.0072087588        0.0001241340
 Ca        -0.0436341370        0.0206097912        0.0108259132
 Ca         0.0070874762       -0.0064158879       -0.0104669736
 Ca        -0.0106618590        0.0119840011        0.0512152849
 Ca        -0.0474460248       -0.0322592620       -0.0859927257
 Ca         0.0004805422        0.0389413281       -0.0078988230
 Ca        -0.0782138654        0.0183884867       -0.0696806344
 Ca         0.0120969155        0.0157342793       -0.0104459969
 Ca        -0.0783940729        0.0073922679       -0.0680044635
 Ca         0.0173296775        0.0310438156       -0.0217739806
 Ca         0.0782380714       -0.1018931586       -0.0267606793
 Ca         0.0131378410        0.0025859757       -0.0339417193
 Ca         0.0298639469       -0.0149904472       -0.0052929113
 Ca        -0.0006174759       -0.0089447211       -0.0005166456
 Ca         0.0171152083        0.0621516634       -0.0725286394
 Ca         0.0010346313       -0.0226178493        0.0050986573
 Ca        -0.0090835682       -0.0716036159       -0.1015259196
 Ca        -0.0147787918        0.0030898077       -0.0068549720
 Ca         0.0686456589        0.0872631126       -0.0411299605
 Ca         0.0061272144       -0.0179248999       -0.0099387514
 Ca         0.0682696929       -0.0104833455       -0.0734020718
 Ca        -0.0265176720       -0.0057378661       -0.0051987057
