     360
 i =        0, time =        0.000, E =      -422.1536565482
  O         0.0001168036       -0.0000699495       -0.0000815591
  O        -0.0000587655       -0.0001183127       -0.0001761969
  O         0.0003862014       -0.0002637365        0.0001408790
  O         0.0003606314       -0.0001322277        0.0000593409
  O         0.0001321595       -0.0001248349        0.0002624284
  O         0.0000166696       -0.0001221897        0.0001670187
  O        -0.0002640569       -0.0002088296       -0.0001326109
  O        -0.0001977953        0.0001835823       -0.0001651502
  O        -0.0000221774        0.0003819048       -0.0001130174
  O        -0.0000637043        0.0003129778       -0.0001170288
  O         0.0001512731       -0.0000546023        0.0002395081
  O         0.0000174941        0.0000752752       -0.0002147853
  O        -0.0001166741       -0.0000371106        0.0001772872
  O        -0.0000095129        0.0003391760        0.0000158369
  O         0.0003780273        0.0001177430        0.0000636003
  O        -0.0000008215       -0.0002651575        0.0002154611
  O        -0.0000455785        0.0000831243        0.0000777657
  O         0.0001216115        0.0000105582       -0.0000308078
  O        -0.0001084843        0.0001730398        0.0000983297
  O         0.0001243012       -0.0000158083        0.0003928184
  O        -0.0001958460        0.0000096856       -0.0000718523
  O         0.0002878381        0.0000110624       -0.0000981302
  O        -0.0005026178       -0.0000415674        0.0000365478
  O        -0.0001833557        0.0001550846       -0.0001107952
  O         0.0002902192        0.0001926259        0.0002497268
  O         0.0001120907       -0.0002770190        0.0000966618
  O         0.0000791788        0.0000171904        0.0000121129
  O        -0.0002968889       -0.0000366113        0.0001199666
  O        -0.0002232199        0.0000131138       -0.0000651265
  O        -0.0000028467        0.0002435845        0.0001786705
  O        -0.0001133329        0.0001165870        0.0001947987
  O         0.0003952826        0.0002160400        0.0002304463
  O         0.0000780205       -0.0001691432       -0.0001296080
  O         0.0003657041        0.0001374661       -0.0001185500
  O        -0.0002174922       -0.0001983768        0.0000360999
  O        -0.0003064643        0.0001592594       -0.0000795998
  O        -0.0000734297        0.0003370494        0.0001041857
  O         0.0000181428       -0.0000510180       -0.0000027816
  O        -0.0002627090       -0.0000052341        0.0000308704
  O         0.0000480455        0.0000287889       -0.0002926042
  O        -0.0000816348       -0.0001947636       -0.0000986440
  O        -0.0000892402       -0.0000827766       -0.0000708444
  O         0.0000637077       -0.0001128558       -0.0000126033
  O        -0.0002941869       -0.0003036974       -0.0000096875
  O        -0.0000363395       -0.0000921905       -0.0001775910
  O         0.0001270312        0.0000518819       -0.0003771246
  O         0.0001025432        0.0002773102        0.0000031624
  O        -0.0002729011       -0.0000436697       -0.0000663213
  O         0.0001329779       -0.0000884060        0.0000642622
  O         0.0001203183       -0.0000068436       -0.0000051286
  O         0.0002254825       -0.0001857663        0.0002175521
  O         0.0001125792        0.0003942190        0.0001916519
  O         0.0000262218        0.0000247766        0.0000453830
  O        -0.0002758933       -0.0000494058       -0.0003129044
  O        -0.0001413830       -0.0001723578       -0.0000356870
  O         0.0002440586       -0.0000353765       -0.0000975515
  O         0.0003481474       -0.0000834820        0.0002531097
  O         0.0000546919       -0.0000197546        0.0002613959
  O         0.0000722898       -0.0000815936       -0.0000660082
  O        -0.0000786226        0.0001322909        0.0002050658
  O         0.0001043598       -0.0001999376        0.0000281387
  O        -0.0000214029        0.0000361815       -0.0000669726
  O         0.0002008171       -0.0001475286        0.0001503707
  O        -0.0001616232        0.0001746792       -0.0002521543
  O         0.0000343507       -0.0001537894        0.0002499687
  O        -0.0001250641        0.0001442533        0.0002364739
  O         0.0002431410        0.0001366454        0.0003021223
  O         0.0001085393        0.0000469777        0.0000363551
  O         0.0001988205        0.0000581130       -0.0004323098
  O         0.0001484053        0.0001784591        0.0004192222
  O        -0.0000027862       -0.0001703039       -0.0000940116
  O         0.0001272491       -0.0003257302        0.0001252191
  O        -0.0001090180        0.0002665748       -0.0001469348
  O        -0.0001468530       -0.0001106344       -0.0000848900
  O        -0.0001347047       -0.0003399423       -0.0000671757
  O        -0.0001690370       -0.0002728938        0.0003443385
  O        -0.0000998666        0.0000179139       -0.0002694780
  O         0.0000819751       -0.0000552147       -0.0002172444
  O         0.0000460110        0.0003831298       -0.0001003768
  O        -0.0000827945        0.0001619171        0.0003623730
  O        -0.0003489466        0.0000782806       -0.0001833485
  O        -0.0000161252       -0.0003235208       -0.0000057500
  O        -0.0001031017        0.0002197073        0.0001603337
  O        -0.0001793954       -0.0000726254       -0.0000967471
  O        -0.0000618171        0.0000926510        0.0001817715
  O        -0.0000111417        0.0002959048       -0.0000277947
  O         0.0001678005       -0.0001451843        0.0001140847
  O         0.0003250366        0.0002098724       -0.0001938823
  O        -0.0000379726        0.0001102176       -0.0000470287
  O        -0.0001123869       -0.0000029696       -0.0001953287
  O         0.0001001479        0.0000318562        0.0000148127
  O        -0.0000565421        0.0000074629       -0.0003636463
  O        -0.0000514852        0.0001250132       -0.0001750263
  O        -0.0001831564        0.0000421700        0.0002485355
  O         0.0000800775        0.0000459842       -0.0000392585
  O         0.0001576551        0.0000925499       -0.0002726072
  O         0.0000851069        0.0001343855       -0.0001621838
  O        -0.0000015469        0.0001148814        0.0000008370
  O         0.0000097831       -0.0001722445        0.0000368408
  O        -0.0001933700       -0.0001560649       -0.0000789616
  O         0.0002137844       -0.0001450968       -0.0000691775
  O         0.0000594351       -0.0002023370       -0.0000682219
  O         0.0000859691       -0.0000659258       -0.0000163510
  O         0.0005246111        0.0001785033        0.0000084877
  O        -0.0003036125        0.0000982463        0.0002739383
  O         0.0001951403       -0.0003802661        0.0002591175
  O        -0.0002853680        0.0001900480       -0.0000289592
  O        -0.0000194764        0.0000097479        0.0001486254
  O         0.0002346802       -0.0000831805        0.0002116039
  O         0.0002114127       -0.0002442104       -0.0000909631
  O         0.0002746584        0.0002569555        0.0001447769
  O        -0.0004978023       -0.0001232103       -0.0000027256
  O         0.0000839937       -0.0000395110        0.0001820191
  O        -0.0004057922        0.0002066885       -0.0004008635
  O         0.0001620470       -0.0000322115       -0.0002638219
  O         0.0000114925       -0.0001887374       -0.0000625054
  O         0.0001447613        0.0001592993        0.0000480470
  O         0.0000032480        0.0001301773       -0.0003129091
  O         0.0002750433       -0.0001644895        0.0000604266
  O         0.0000871891       -0.0000929428        0.0001179357
  O        -0.0000086761       -0.0001809505        0.0000821782
  O         0.0000345984       -0.0001777291       -0.0000337322
  O         0.0000963590        0.0003394291       -0.0001275658
  O        -0.0001423331        0.0000520666       -0.0001117047
  O         0.0002289374       -0.0000854656        0.0002202800
  O        -0.0001681382       -0.0002626182       -0.0002054121
  O         0.0000993337       -0.0000543660        0.0000396707
  O         0.0002140186       -0.0002697217       -0.0001947614
  O        -0.0000775592       -0.0002107267        0.0001294378
  O        -0.0001899701        0.0002703071        0.0000304866
  O        -0.0000085483       -0.0000631836       -0.0000037850
  O         0.0003766305        0.0001988838       -0.0001971485
  O        -0.0000501880        0.0001941444        0.0001787052
  O        -0.0000334717        0.0000409121       -0.0000336149
  O        -0.0001717547       -0.0000965833        0.0001769903
  O        -0.0000265400        0.0001218991       -0.0000061556
  O         0.0001136499        0.0002896262        0.0000291805
  O        -0.0000104577        0.0000498361        0.0000523163
  O         0.0003183575        0.0001308741        0.0001595611
  O         0.0001241296        0.0000426043        0.0003915984
  O        -0.0000337753        0.0000849059       -0.0000864092
  O         0.0003261108        0.0001022858        0.0000086099
  O         0.0001443457       -0.0000289536       -0.0002052784
  O        -0.0002735374       -0.0000948421       -0.0001263479
  O        -0.0001485301        0.0000188690       -0.0000675807
  O         0.0000168601        0.0000314184        0.0000659427
  O        -0.0002861666       -0.0001385744       -0.0001321020
  O         0.0001203719       -0.0000732805        0.0001850004
  O         0.0000317835       -0.0001139881       -0.0000301552
  O         0.0001867975        0.0002981829       -0.0003848611
  O         0.0002055391        0.0001303660        0.0000394274
  O        -0.0000808466       -0.0001785444       -0.0000482651
  O        -0.0002065897       -0.0002571510       -0.0000947821
  O        -0.0000891056       -0.0002197389        0.0003194703
  O        -0.0000809583       -0.0003784719        0.0002479070
  O         0.0000141072        0.0002634779       -0.0001461612
  O        -0.0001169159       -0.0002461147       -0.0000037373
  O         0.0000204856       -0.0004681219       -0.0000541616
  O         0.0001101976       -0.0001862490        0.0000322809
  O         0.0004510974        0.0000141521        0.0001618492
  O        -0.0001025914        0.0001698061        0.0002109924
  O         0.0000131692        0.0001446302       -0.0001485913
  O        -0.0001875450        0.0001817058        0.0001027007
  O        -0.0002349339       -0.0000294165       -0.0001971819
  O        -0.0002180618       -0.0001973515       -0.0002629785
  O         0.0002264257        0.0000010145       -0.0000082978
  O         0.0000352653       -0.0000195733        0.0000363402
  O        -0.0000783270        0.0000328481       -0.0002144001
  O        -0.0002004989       -0.0001301633       -0.0000005046
  O         0.0000874720       -0.0000953027       -0.0002060301
  O        -0.0002654843        0.0000143210        0.0002286328
  O        -0.0000851308        0.0005170637       -0.0000197785
  O        -0.0000278719       -0.0000840277        0.0001863346
  O         0.0002613265        0.0001681635       -0.0001907300
  O        -0.0001821662       -0.0002942881       -0.0000221810
  O         0.0003863710        0.0000560288        0.0002473382
  O         0.0000312503        0.0001983248        0.0000134581
  O        -0.0001298422        0.0001573242       -0.0001922895
  O        -0.0000802208        0.0001517104        0.0000525446
  O        -0.0001239226        0.0001384949       -0.0001224709
  O         0.0002267066        0.0000034665       -0.0000557005
  O         0.0000714690        0.0000253192       -0.0000592513
  O        -0.0002933026       -0.0001346470       -0.0000799970
  O         0.0000910851        0.0000832076       -0.0000889547
  O        -0.0001569461        0.0002283489        0.0000693299
  O         0.0007310986       -0.0001776937       -0.0000351007
  O         0.0002699041       -0.0001267410        0.0002469199
  O         0.0002320034        0.0001165858        0.0000665667
  O        -0.0000364591        0.0000508494        0.0002078041
  O         0.0002559537        0.0002582085       -0.0002257707
  O        -0.0000487477        0.0002082028        0.0000071994
  O        -0.0001769246        0.0000429259        0.0001044591
  O         0.0000649833        0.0001536596       -0.0004360244
  O        -0.0003973558        0.0000593153        0.0003127691
  O        -0.0000524087        0.0000128921       -0.0002376858
  O         0.0003445183        0.0000970845       -0.0001353420
  O         0.0000126677       -0.0004074532        0.0002861717
  O         0.0001384896       -0.0000030472        0.0004368796
  O        -0.0000474159        0.0000942374       -0.0001431444
  O         0.0000417753       -0.0002859560       -0.0002176916
  O         0.0001735524       -0.0000706219        0.0003165591
  O        -0.0002108540        0.0000106101       -0.0005192232
  O        -0.0004370158        0.0000727319       -0.0000229391
  O        -0.0002685593       -0.0002582054        0.0001905805
  O         0.0000254341       -0.0003457384        0.0003606070
  O        -0.0000112104       -0.0001279319        0.0000597721
  O         0.0000010900        0.0002506720        0.0001601493
  O        -0.0002456413       -0.0000307196       -0.0001861797
  O         0.0003453936        0.0000870218       -0.0002006734
  O        -0.0002688515        0.0002305084        0.0001634511
  O        -0.0000688718       -0.0001082364       -0.0002828977
  O        -0.0001612710        0.0000357527       -0.0000680127
  O        -0.0000650014       -0.0001583977        0.0000972478
  O         0.0000286748        0.0001649948       -0.0001096445
  O         0.0000394469       -0.0001726734        0.0001757370
  O        -0.0001448873        0.0002483281        0.0000530580
 Si         0.0000892497        0.0000999364       -0.0000229525
 Si        -0.0001809931        0.0001918246        0.0000261684
 Si        -0.0000204857        0.0000501134       -0.0000841588
 Si         0.0001809030       -0.0000463475       -0.0001946314
 Si        -0.0001012351        0.0000165209       -0.0000933851
 Si         0.0002428738        0.0000247569        0.0001111626
 Si        -0.0000900840        0.0000762305        0.0001927739
 Si         0.0000392222        0.0000044167        0.0001027135
 Si         0.0001269147       -0.0000944895        0.0001140058
 Si         0.0000138092        0.0000706786       -0.0001205666
 Si        -0.0000515939        0.0000451557        0.0000671467
 Si        -0.0002906607        0.0000061317        0.0000288936
 Si         0.0002796587       -0.0000716527       -0.0000748841
 Si        -0.0000633884       -0.0000781288       -0.0001191822
 Si        -0.0000205331       -0.0000885051       -0.0000238530
 Si        -0.0000508430        0.0000996683       -0.0000162119
 Si         0.0000663562        0.0000783241        0.0000319703
 Si         0.0001881522       -0.0000581367       -0.0000294168
 Si         0.0001684524       -0.0000149423        0.0000945856
 Si        -0.0000163484       -0.0000856423        0.0001995575
 Si         0.0001414011        0.0000106707       -0.0001140377
 Si         0.0002724125       -0.0001354081        0.0001096460
 Si         0.0001078656        0.0001151072        0.0000341318
 Si        -0.0001666324        0.0001415787       -0.0000157226
 Si        -0.0001425965        0.0000425490       -0.0000699400
 Si         0.0000490105       -0.0000258160        0.0000577216
 Si        -0.0001361356       -0.0000066920       -0.0002015743
 Si        -0.0001895879        0.0001488244       -0.0000000347
 Si         0.0000026027        0.0001165542       -0.0000013585
 Si         0.0000332544       -0.0000160954       -0.0000661313
 Si        -0.0001545395        0.0000709529       -0.0000045500
 Si        -0.0001690157       -0.0002705544       -0.0001768474
 Si         0.0000748807       -0.0002310149        0.0000336360
 Si        -0.0001048906       -0.0000514840        0.0001041176
 Si         0.0000358979        0.0000930915        0.0002386636
 Si         0.0002285881        0.0000599074       -0.0001078295
 Si        -0.0000275040       -0.0000868423        0.0002283887
 Si         0.0000334294        0.0002005916        0.0000469371
 Si         0.0000031541        0.0001725415        0.0000449960
 Si        -0.0000385953        0.0000733449        0.0002836109
 Si         0.0000228034        0.0000817193       -0.0000107533
 Si        -0.0000503806       -0.0001012522       -0.0000862960
 Si         0.0002164808       -0.0000905756       -0.0002855016
 Si         0.0002453165        0.0000815640        0.0000494123
 Si        -0.0000466227       -0.0000757855        0.0000280016
 Si         0.0000583450        0.0000945328        0.0001716233
 Si         0.0001047040        0.0000441894       -0.0000444916
 Si        -0.0001170471        0.0000980899        0.0002063909
 Si         0.0001618782       -0.0000785933       -0.0001671931
 Si        -0.0000898207        0.0002604458       -0.0000564918
 Si        -0.0001310214        0.0001837673       -0.0001111235
 Si        -0.0002815911       -0.0001444782       -0.0000259981
 Si        -0.0000057625       -0.0000862758       -0.0000621371
 Si         0.0000437672       -0.0000687767       -0.0001605615
 Si        -0.0000601945        0.0000142521        0.0000107828
 Si         0.0001728871       -0.0002134031        0.0000211265
 Si        -0.0000609279        0.0002996024        0.0001248797
 Si        -0.0000244102       -0.0000689529        0.0002057447
 Si        -0.0000273710       -0.0000484596       -0.0001600135
 Si        -0.0001836036        0.0000816380       -0.0000217113
 Si         0.0000130465       -0.0000734576       -0.0000763807
 Si         0.0002118692       -0.0000713622        0.0001819737
 Si         0.0000508363       -0.0000716038       -0.0001030347
 Si         0.0001485120       -0.0000730380        0.0001428444
 Si        -0.0001355604       -0.0000687905       -0.0000405480
 Si        -0.0001384076       -0.0000119613       -0.0000342436
 Si         0.0001393113       -0.0001100266       -0.0000814756
 Si         0.0000216246        0.0001745191       -0.0000333018
 Si        -0.0000506142       -0.0001230772       -0.0000458236
 Si        -0.0001649123       -0.0000424888       -0.0002479308
 Si        -0.0001125363       -0.0001630742       -0.0001330313
 Si         0.0000156393        0.0001035589        0.0000171747
 Ca        -0.0001855448       -0.0000090006       -0.0000519960
 Ca         0.0003315303       -0.0000709861       -0.0000621411
 Ca        -0.0000526302        0.0000645686       -0.0000111420
 Ca         0.0003170765        0.0000577757        0.0001781073
 Ca        -0.0001752299       -0.0000811117       -0.0000684494
 Ca        -0.0001620003        0.0002285711        0.0000824952
 Ca        -0.0001361236        0.0000797392       -0.0002038463
 Ca        -0.0000413553       -0.0000104279        0.0000453871
 Ca        -0.0000465445        0.0001345589        0.0000365887
 Ca        -0.0000997202       -0.0000976105       -0.0000137657
 Ca         0.0000241060       -0.0000249449        0.0000803321
 Ca         0.0000444835        0.0000353326        0.0000053007
 Ca         0.0001201090        0.0000625953       -0.0001816672
 Ca         0.0000197831        0.0001611513       -0.0000204058
 Ca         0.0000986763       -0.0000140350        0.0001178187
 Ca        -0.0001101075       -0.0001667660        0.0000437190
 Ca        -0.0000252095       -0.0000619267       -0.0000453381
 Ca         0.0000383070        0.0000459799       -0.0000379518
 Ca        -0.0001696538       -0.0001856271       -0.0000251858
 Ca         0.0000218478       -0.0001097000       -0.0002660779
 Ca         0.0000265034        0.0000083937        0.0000155694
 Ca        -0.0000782183       -0.0000505731       -0.0000787411
 Ca        -0.0000151141        0.0001313811        0.0001313499
 Ca        -0.0000446243        0.0001076952        0.0001006332
 Ca         0.0000170138       -0.0000030047        0.0000400318
 Ca         0.0000232116        0.0000460839       -0.0000499795
 Ca         0.0000863204       -0.0000290350        0.0000563541
 Ca         0.0000877120       -0.0000571660        0.0000293680
 Ca         0.0001888151        0.0002337242       -0.0000140223
 Ca        -0.0001241663        0.0000783120       -0.0000356710
 Ca        -0.0000582493       -0.0000719620       -0.0002469233
 Ca        -0.0000476491        0.0000168507       -0.0001502550
 Ca         0.0000017187        0.0001701141       -0.0002144824
 Ca        -0.0002552521        0.0000958022       -0.0000342812
 Ca         0.0000667443       -0.0000411653       -0.0000248176
 Ca        -0.0001928244       -0.0000137409        0.0001796926
 Ca        -0.0000457301       -0.0001229938       -0.0000821761
 Ca         0.0002465365        0.0000340839        0.0000727053
 Ca        -0.0001058021        0.0001245204        0.0000023236
 Ca        -0.0000836041        0.0001889344        0.0001762662
 Ca        -0.0000033393       -0.0001194291        0.0002132588
 Ca        -0.0001824455       -0.0000091156        0.0000183001
 Ca        -0.0000469762       -0.0000515083       -0.0001145715
 Ca         0.0001199045       -0.0000480317       -0.0000645401
 Ca         0.0001535716        0.0000842002        0.0002123306
 Ca         0.0000946764       -0.0000524822       -0.0000086277
 Ca        -0.0000449488       -0.0001430644        0.0000750262
 Ca         0.0000428916       -0.0000224934        0.0001141557
 Ca        -0.0001300059       -0.0000825149       -0.0002777402
 Ca         0.0000279933       -0.0000507883        0.0001675714
 Ca         0.0000029536       -0.0000873225       -0.0000106591
 Ca        -0.0000975878        0.0000667951        0.0000965761
 Ca         0.0000800171       -0.0000203237       -0.0000068792
 Ca        -0.0001139638        0.0000016470       -0.0000010708
 Ca        -0.0001248540       -0.0001778500       -0.0003032230
 Ca         0.0001313238        0.0001092589        0.0000272148
 Ca        -0.0000018684       -0.0001907469       -0.0001765974
 Ca        -0.0002127830       -0.0001491000        0.0000677472
 Ca         0.0000189469        0.0001601795        0.0000020670
 Ca         0.0001598233       -0.0000370104        0.0000380742
 Ca        -0.0001210567       -0.0002914762       -0.0001076432
 Ca        -0.0000123959        0.0000143638        0.0001087875
 Ca         0.0001266486        0.0000874425       -0.0001192503
 Ca         0.0002802330       -0.0001765015        0.0000899414
 Ca        -0.0000796530        0.0000521294       -0.0001305914
 Ca         0.0000137626       -0.0000556755       -0.0002608352
 Ca        -0.0000720311        0.0000196951        0.0000439297
 Ca         0.0000279314       -0.0001682772        0.0001455658
 Ca        -0.0001087415        0.0000914106        0.0000989450
 Ca        -0.0000414901       -0.0001120445        0.0001528097
 Ca        -0.0001202970       -0.0001210253        0.0001346147
 Ca        -0.0001244891        0.0001003085        0.0001914716
     360
 i =        1, time =        1.000, E =      -422.2560839608
  O         0.0001671378       -0.0000794325       -0.0001727832
  O        -0.0001232722       -0.0001335722       -0.0001637049
  O         0.0004051786       -0.0002194736       -0.0000357362
  O         0.0003857049       -0.0001829680        0.0000664610
  O         0.0001594683       -0.0002151576        0.0001863898
  O         0.0000023737       -0.0002327436        0.0001833663
  O        -0.0002549308       -0.0002699961       -0.0002245250
  O        -0.0001575633        0.0001960683       -0.0001410437
  O        -0.0000439182        0.0005296043       -0.0001699579
  O        -0.0000562194        0.0003435778       -0.0001049554
  O         0.0002142098       -0.0000026110        0.0001944494
  O         0.0000009634        0.0000712048       -0.0002348712
  O        -0.0001264406        0.0000340144        0.0000638663
  O        -0.0000049326        0.0003631415        0.0000185694
  O         0.0004726844        0.0000379236       -0.0001787039
  O         0.0000087440       -0.0002295435        0.0002422179
  O        -0.0000782748        0.0000852432        0.0000557084
  O         0.0001422088       -0.0000056190       -0.0000055438
  O        -0.0001090868        0.0002055551        0.0000954218
  O         0.0001516352       -0.0000717338        0.0005348402
  O        -0.0002202895       -0.0000003796       -0.0000949567
  O         0.0003093606        0.0000844490       -0.0000541731
  O        -0.0004871684       -0.0000996865        0.0000709755
  O        -0.0001661102        0.0001512381        0.0000106309
  O         0.0003492672        0.0002206788        0.0002551826
  O         0.0000220670       -0.0003040687        0.0002429215
  O         0.0000970679        0.0000739283       -0.0000002121
  O        -0.0002768499       -0.0000238053        0.0002867220
  O        -0.0002655444        0.0000221738       -0.0000398876
  O         0.0001151864        0.0002725756        0.0002982547
  O        -0.0001481240        0.0001163617        0.0002106699
  O         0.0005089285        0.0002278125        0.0002753338
  O         0.0000867339       -0.0001077062       -0.0000746417
  O         0.0003603850        0.0001518976       -0.0001167674
  O        -0.0002627411       -0.0002048919        0.0000694240
  O        -0.0003463581        0.0000740770        0.0001981416
  O        -0.0000874326        0.0003051881        0.0000998455
  O         0.0000126923       -0.0000029751        0.0001773655
  O        -0.0001886866        0.0000588239        0.0000522786
  O         0.0000392745        0.0000623509       -0.0003068305
  O        -0.0000827139       -0.0002156740       -0.0001110032
  O        -0.0000172123        0.0000581902        0.0000322160
  O         0.0000887447       -0.0001646777       -0.0000145618
  O        -0.0003894555       -0.0001969971        0.0002040031
  O         0.0000005586       -0.0000407152       -0.0001955707
  O         0.0002121023        0.0000024374       -0.0002506968
  O         0.0000772071        0.0002741403       -0.0000165756
  O        -0.0003107938       -0.0000832197        0.0000401052
  O         0.0001219763       -0.0001143554        0.0000651276
  O         0.0001321369       -0.0001225445        0.0000794067
  O         0.0002991650       -0.0001129839        0.0002312764
  O         0.0000834069        0.0004201095        0.0002556286
  O         0.0000360581        0.0000649142        0.0000947545
  O        -0.0002459815       -0.0000681638       -0.0000224768
  O        -0.0001719199       -0.0001186062       -0.0001097645
  O         0.0001602793        0.0000044823       -0.0001257908
  O         0.0003422701       -0.0001491914        0.0000121257
  O         0.0000387127        0.0000335670        0.0002584411
  O         0.0000158905       -0.0000562698       -0.0001428293
  O        -0.0001227154        0.0000787357        0.0002375967
  O         0.0001612795       -0.0001780139       -0.0000605594
  O        -0.0000032611        0.0000665154       -0.0000910116
  O         0.0001558148       -0.0002052094        0.0001554735
  O        -0.0001495948        0.0002149547       -0.0002278550
  O        -0.0001944744       -0.0000596756        0.0001042273
  O        -0.0000542539        0.0001049824        0.0002438404
  O         0.0001796870        0.0002238975        0.0001607424
  O         0.0001538061        0.0000703288        0.0000699182
  O         0.0002396400       -0.0000155820       -0.0005357618
  O         0.0001309980        0.0002740321        0.0004139879
  O        -0.0000125009       -0.0001692644       -0.0001403716
  O         0.0000271976       -0.0002979023        0.0001257905
  O        -0.0000716243        0.0003328457       -0.0000339943
  O        -0.0001517147       -0.0001497501       -0.0000808624
  O        -0.0001620797       -0.0003321341       -0.0000613836
  O        -0.0001364937       -0.0002719004        0.0002740113
  O        -0.0001367538       -0.0000355951       -0.0002841640
  O         0.0000818479       -0.0000456375       -0.0002616191
  O        -0.0000394150        0.0003540784       -0.0000958170
  O        -0.0001339862        0.0001586490        0.0003774372
  O        -0.0003417393        0.0001035004       -0.0002108504
  O        -0.0000539920       -0.0003525903        0.0000024616
  O        -0.0001029927        0.0002178111        0.0001287925
  O        -0.0002307367       -0.0001202419       -0.0000908317
  O        -0.0001110557        0.0000814483        0.0001856623
  O        -0.0000171562        0.0003190425       -0.0000024563
  O         0.0001820022       -0.0001239642        0.0000588604
  O         0.0002453158        0.0001741475       -0.0001696030
  O        -0.0000576794        0.0000314411        0.0000127665
  O        -0.0002211165        0.0000036902       -0.0001589899
  O         0.0000887177       -0.0000050223        0.0000421042
  O        -0.0000554487       -0.0000145244       -0.0003216540
  O        -0.0000599039        0.0000868781       -0.0001679333
  O        -0.0001529250        0.0000048879        0.0002096216
  O         0.0001047602        0.0000429518       -0.0000556390
  O         0.0002176338        0.0000682264       -0.0002332520
  O         0.0001143986        0.0001345971       -0.0001919874
  O         0.0000164313        0.0000723209        0.0000216348
  O        -0.0000045462       -0.0001907685        0.0000593043