#     Step Nr.          Time[fs]        Kin.[a.u.]          Temp[K]            Pot.[a.u.]        Cons Qty[a.u.]        UsedTime[s]
         0            0.000000         0.511599019       300.000000000      -422.153656548      -421.641582507         0.000000000
         1            1.000000         0.613841038       359.954387307      -422.256083961      -421.641733582        17.677000000
