     256
 i =        0, time =        0.000, E =        -0.8062955485
 Ar         0.0000000000        0.0000000000        0.0000000000
 Ar         2.6242335000        2.6242335000        0.0000000000
 Ar         2.6242335000        0.0000000000        2.6242335000
 Ar         0.0000000000        2.6242335000        2.6242335000
 Ar         0.0000000000        0.0000000000        5.2484670000
 Ar         2.6242335000        2.6242335000        5.2484670000
 Ar         2.6242335000        0.0000000000        7.8727005000
 Ar         0.0000000000        2.6242335000        7.8727005000
 Ar         0.0000000000        0.0000000000       10.4969340000
 Ar         2.6242335000        2.6242335000       10.4969340000
 Ar         2.6242335000        0.0000000000       13.1211675000
 Ar         0.0000000000        2.6242335000       13.1211675000
 Ar         0.0000000000        0.0000000000       15.7454010000
 Ar         2.6242335000        2.6242335000       15.7454010000
 Ar         2.6242335000        0.0000000000       18.3696345000
 Ar         0.0000000000        2.6242335000       18.3696345000
 Ar         0.0000000000        5.2484670000        0.0000000000
 Ar         2.6242335000        7.8727005000        0.0000000000
 Ar         2.6242335000        5.2484670000        2.6242335000
 Ar         0.0000000000        7.8727005000        2.6242335000
 Ar         0.0000000000        5.2484670000        5.2484670000
 Ar         2.6242335000        7.8727005000        5.2484670000
 Ar         2.6242335000        5.2484670000        7.8727005000
 Ar         0.0000000000        7.8727005000        7.8727005000
 Ar         0.0000000000        5.2484670000       10.4969340000
 Ar         2.6242335000        7.8727005000       10.4969340000
 Ar         2.6242335000        5.2484670000       13.1211675000
 Ar         0.0000000000        7.8727005000       13.1211675000
 Ar         0.0000000000        5.2484670000       15.7454010000
 Ar         2.6242335000        7.8727005000       15.7454010000
 Ar         2.6242335000        5.2484670000       18.3696345000
 Ar         0.0000000000        7.8727005000       18.3696345000
 Ar         0.0000000000       10.4969340000        0.0000000000
 Ar         2.6242335000       13.1211675000        0.0000000000
 Ar         2.6242335000       10.4969340000        2.6242335000
 Ar         0.0000000000       13.1211675000        2.6242335000
 Ar         0.0000000000       10.4969340000        5.2484670000
 Ar         2.6242335000       13.1211675000        5.2484670000
 Ar         2.6242335000       10.4969340000        7.8727005000
 Ar         0.0000000000       13.1211675000        7.8727005000
 Ar         0.0000000000       10.4969340000       10.4969340000
 Ar         2.6242335000       13.1211675000       10.4969340000
 Ar         2.6242335000       10.4969340000       13.1211675000
 Ar         0.0000000000       13.1211675000       13.1211675000
 Ar         0.0000000000       10.4969340000       15.7454010000
 Ar         2.6242335000       13.1211675000       15.7454010000
 Ar         2.6242335000       10.4969340000       18.3696345000
 Ar         0.0000000000       13.1211675000       18.3696345000
 Ar         0.0000000000       15.7454010000        0.0000000000
 Ar         2.6242335000       18.3696345000        0.0000000000
 Ar         2.6242335000       15.7454010000        2.6242335000
 Ar         0.0000000000       18.3696345000        2.6242335000
 Ar         0.0000000000       15.7454010000        5.2484670000
 Ar         2.6242335000       18.3696345000        5.2484670000
 Ar         2.6242335000       15.7454010000        7.8727005000
 Ar         0.0000000000       18.3696345000        7.8727005000
 Ar         0.0000000000       15.7454010000       10.4969340000
 Ar         2.6242335000       18.3696345000       10.4969340000
 Ar         2.6242335000       15.7454010000       13.1211675000
 Ar         0.0000000000       18.3696345000       13.1211675000
 Ar         0.0000000000       15.7454010000       15.7454010000
 Ar         2.6242335000       18.3696345000       15.7454010000
 Ar         2.6242335000       15.7454010000       18.3696345000
 Ar         0.0000000000       18.3696345000       18.3696345000
 Ar         5.2484670000        0.0000000000        0.0000000000
 Ar         7.8727005000        2.6242335000        0.0000000000
 Ar         7.8727005000        0.0000000000        2.6242335000
 Ar         5.2484670000        2.6242335000        2.6242335000
 Ar         5.2484670000        0.0000000000        5.2484670000
 Ar         7.8727005000        2.6242335000        5.2484670000
 Ar         7.8727005000        0.0000000000        7.8727005000
 Ar         5.2484670000        2.6242335000        7.8727005000
 Ar         5.2484670000        0.0000000000       10.4969340000
 Ar         7.8727005000        2.6242335000       10.4969340000
 Ar         7.8727005000        0.0000000000       13.1211675000
 Ar         5.2484670000        2.6242335000       13.1211675000
 Ar         5.2484670000        0.0000000000       15.7454010000
 Ar         7.8727005000        2.6242335000       15.7454010000
 Ar         7.8727005000        0.0000000000       18.3696345000
 Ar         5.2484670000        2.6242335000       18.3696345000
 Ar         5.2484670000        5.2484670000        0.0000000000
 Ar         7.8727005000        7.8727005000        0.0000000000
 Ar         7.8727005000        5.2484670000        2.6242335000
 Ar         5.2484670000        7.8727005000        2.6242335000
 Ar         5.2484670000        5.2484670000        5.2484670000
 Ar         7.8727005000        7.8727005000        5.2484670000
 Ar         7.8727005000        5.2484670000        7.8727005000
 Ar         5.2484670000        7.8727005000        7.8727005000
 Ar         5.2484670000        5.2484670000       10.4969340000
 Ar         7.8727005000        7.8727005000       10.4969340000
 Ar         7.8727005000        5.2484670000       13.1211675000
 Ar         5.2484670000        7.8727005000       13.1211675000
 Ar         5.2484670000        5.2484670000       15.7454010000
 Ar         7.8727005000        7.8727005000       15.7454010000
 Ar         7.8727005000        5.2484670000       18.3696345000
 Ar         5.2484670000        7.8727005000       18.3696345000
 Ar         5.2484670000       10.4969340000        0.0000000000
 Ar         7.8727005000       13.1211675000        0.0000000000
 Ar         7.8727005000       10.4969340000        2.6242335000
 Ar         5.2484670000       13.1211675000        2.6242335000
 Ar         5.2484670000       10.4969340000        5.2484670000
 Ar         7.8727005000       13.1211675000        5.2484670000
 Ar         7.8727005000       10.4969340000        7.8727005000
 Ar         5.2484670000       13.1211675000        7.8727005000
 Ar         5.2484670000       10.4969340000       10.4969340000
 Ar         7.8727005000       13.1211675000       10.4969340000
 Ar         7.8727005000       10.4969340000       13.1211675000
 Ar         5.2484670000       13.1211675000       13.1211675000
 Ar         5.2484670000       10.4969340000       15.7454010000
 Ar         7.8727005000       13.1211675000       15.7454010000
 Ar         7.8727005000       10.4969340000       18.3696345000
 Ar         5.2484670000       13.1211675000       18.3696345000
 Ar         5.2484670000       15.7454010000        0.0000000000
 Ar         7.8727005000       18.3696345000        0.0000000000
 Ar         7.8727005000       15.7454010000        2.6242335000
 Ar         5.2484670000       18.3696345000        2.6242335000
 Ar         5.2484670000       15.7454010000        5.2484670000
 Ar         7.8727005000       18.3696345000        5.2484670000
 Ar         7.8727005000       15.7454010000        7.8727005000
 Ar         5.2484670000       18.3696345000        7.8727005000
 Ar         5.2484670000       15.7454010000       10.4969340000
 Ar         7.8727005000       18.3696345000       10.4969340000
 Ar         7.8727005000       15.7454010000       13.1211675000
 Ar         5.2484670000       18.3696345000       13.1211675000
 Ar         5.2484670000       15.7454010000       15.7454010000
 Ar         7.8727005000       18.3696345000       15.7454010000
 Ar         7.8727005000       15.7454010000       18.3696345000
 Ar         5.2484670000       18.3696345000       18.3696345000
 Ar        10.4969340000        0.0000000000        0.0000000000
 Ar        13.1211675000        2.6242335000        0.0000000000
 Ar        13.1211675000        0.0000000000        2.6242335000
 Ar        10.4969340000        2.6242335000        2.6242335000
 Ar        10.4969340000        0.0000000000        5.2484670000
 Ar        13.1211675000        2.6242335000        5.2484670000
 Ar        13.1211675000        0.0000000000        7.8727005000
 Ar        10.4969340000        2.6242335000        7.8727005000
 Ar        10.4969340000        0.0000000000       10.4969340000
 Ar        13.1211675000        2.6242335000       10.4969340000
 Ar        13.1211675000        0.0000000000       13.1211675000
 Ar        10.4969340000        2.6242335000       13.1211675000
 Ar        10.4969340000        0.0000000000       15.7454010000
 Ar        13.1211675000        2.6242335000       15.7454010000
 Ar        13.1211675000        0.0000000000       18.3696345000
 Ar        10.4969340000        2.6242335000       18.3696345000
 Ar        10.4969340000        5.2484670000        0.0000000000
 Ar        13.1211675000        7.8727005000        0.0000000000
 Ar        13.1211675000        5.2484670000        2.6242335000
 Ar        10.4969340000        7.8727005000        2.6242335000
 Ar        10.4969340000        5.2484670000        5.2484670000
 Ar        13.1211675000        7.8727005000        5.2484670000
 Ar        13.1211675000        5.2484670000        7.8727005000
 Ar        10.4969340000        7.8727005000        7.8727005000
 Ar        10.4969340000        5.2484670000       10.4969340000
 Ar        13.1211675000        7.8727005000       10.4969340000
 Ar        13.1211675000        5.2484670000       13.1211675000
 Ar        10.4969340000        7.8727005000       13.1211675000
 Ar        10.4969340000        5.2484670000       15.7454010000
 Ar        13.1211675000        7.8727005000       15.7454010000
 Ar        13.1211675000        5.2484670000       18.3696345000
 Ar        10.4969340000        7.8727005000       18.3696345000
 Ar        10.4969340000       10.4969340000        0.0000000000
 Ar        13.1211675000       13.1211675000        0.0000000000
 Ar        13.1211675000       10.4969340000        2.6242335000
 Ar        10.4969340000       13.1211675000        2.6242335000
 Ar        10.4969340000       10.4969340000        5.2484670000
 Ar        13.1211675000       13.1211675000        5.2484670000
 Ar        13.1211675000       10.4969340000        7.8727005000
 Ar        10.4969340000       13.1211675000        7.8727005000
 Ar        10.4969340000       10.4969340000       10.4969340000
 Ar        13.1211675000       13.1211675000       10.4969340000
 Ar        13.1211675000       10.4969340000       13.1211675000
 Ar        10.4969340000       13.1211675000       13.1211675000
 Ar        10.4969340000       10.4969340000       15.7454010000
 Ar        13.1211675000       13.1211675000       15.7454010000
 Ar        13.1211675000       10.4969340000       18.3696345000
 Ar        10.4969340000       13.1211675000       18.3696345000
 Ar        10.4969340000       15.7454010000        0.0000000000
 Ar        13.1211675000       18.3696345000        0.0000000000
 Ar        13.1211675000       15.7454010000        2.6242335000
 Ar        10.4969340000       18.3696345000        2.6242335000
 Ar        10.4969340000       15.7454010000        5.2484670000
 Ar        13.1211675000       18.3696345000        5.2484670000
 Ar        13.1211675000       15.7454010000        7.8727005000
 Ar        10.4969340000       18.3696345000        7.8727005000
 Ar        10.4969340000       15.7454010000       10.4969340000
 Ar        13.1211675000       18.3696345000       10.4969340000
 Ar        13.1211675000       15.7454010000       13.1211675000
 Ar        10.4969340000       18.3696345000       13.1211675000
 Ar        10.4969340000       15.7454010000       15.7454010000
 Ar        13.1211675000       18.3696345000       15.7454010000
 Ar        13.1211675000       15.7454010000       18.3696345000
 Ar        10.4969340000       18.3696345000       18.3696345000
 Ar        15.7454010000        0.0000000000        0.0000000000
 Ar        18.3696345000        2.6242335000        0.0000000000
 Ar        18.3696345000        0.0000000000        2.6242335000
 Ar        15.7454010000        2.6242335000        2.6242335000
 Ar        15.7454010000        0.0000000000        5.2484670000
 Ar        18.3696345000        2.6242335000        5.2484670000
 Ar        18.3696345000        0.0000000000        7.8727005000
 Ar        15.7454010000        2.6242335000        7.8727005000
 Ar        15.7454010000        0.0000000000       10.4969340000
 Ar        18.3696345000        2.6242335000       10.4969340000
 Ar        18.3696345000        0.0000000000       13.1211675000
 Ar        15.7454010000        2.6242335000       13.1211675000
 Ar        15.7454010000        0.0000000000       15.7454010000
 Ar        18.3696345000        2.6242335000       15.7454010000
 Ar        18.3696345000        0.0000000000       18.3696345000
 Ar        15.7454010000        2.6242335000       18.3696345000
 Ar        15.7454010000        5.2484670000        0.0000000000
 Ar        18.3696345000        7.8727005000        0.0000000000
 Ar        18.3696345000        5.2484670000        2.6242335000
 Ar        15.7454010000        7.8727005000        2.6242335000
 Ar        15.7454010000        5.2484670000        5.2484670000
 Ar        18.3696345000        7.8727005000        5.2484670000
 Ar        18.3696345000        5.2484670000        7.8727005000
 Ar        15.7454010000        7.8727005000        7.8727005000
 Ar        15.7454010000        5.2484670000       10.4969340000
 Ar        18.3696345000        7.8727005000       10.4969340000
 Ar        18.3696345000        5.2484670000       13.1211675000
 Ar        15.7454010000        7.8727005000       13.1211675000
 Ar        15.7454010000        5.2484670000       15.7454010000
 Ar        18.3696345000        7.8727005000       15.7454010000
 Ar        18.3696345000        5.2484670000       18.3696345000
 Ar        15.7454010000        7.8727005000       18.3696345000
 Ar        15.7454010000       10.4969340000        0.0000000000
 Ar        18.3696345000       13.1211675000        0.0000000000
 Ar        18.3696345000       10.4969340000        2.6242335000
 Ar        15.7454010000       13.1211675000        2.6242335000
 Ar        15.7454010000       10.4969340000        5.2484670000
 Ar        18.3696345000       13.1211675000        5.2484670000
 Ar        18.3696345000       10.4969340000        7.8727005000
 Ar        15.7454010000       13.1211675000        7.8727005000
 Ar        15.7454010000       10.4969340000       10.4969340000
 Ar        18.3696345000       13.1211675000       10.4969340000
 Ar        18.3696345000       10.4969340000       13.1211675000
 Ar        15.7454010000       13.1211675000       13.1211675000
 Ar        15.7454010000       10.4969340000       15.7454010000
 Ar        18.3696345000       13.1211675000       15.7454010000
 Ar        18.3696345000       10.4969340000       18.3696345000
 Ar        15.7454010000       13.1211675000       18.3696345000
 Ar        15.7454010000       15.7454010000        0.0000000000
 Ar        18.3696345000       18.3696345000        0.0000000000
 Ar        18.3696345000       15.7454010000        2.6242335000
 Ar        15.7454010000       18.3696345000        2.6242335000
 Ar        15.7454010000       15.7454010000        5.2484670000
 Ar        18.3696345000       18.3696345000        5.2484670000
 Ar        18.3696345000       15.7454010000        7.8727005000
 Ar        15.7454010000       18.3696345000        7.8727005000
 Ar        15.7454010000       15.7454010000       10.4969340000
 Ar        18.3696345000       18.3696345000       10.4969340000
 Ar        18.3696345000       15.7454010000       13.1211675000
 Ar        15.7454010000       18.3696345000       13.1211675000
 Ar        15.7454010000       15.7454010000       15.7454010000
 Ar        18.3696345000       18.3696345000       15.7454010000
 Ar        18.3696345000       15.7454010000       18.3696345000
 Ar        15.7454010000       18.3696345000       18.3696345000
